/*--------------------------------*- C++ -*----------------------------------*\
  =========                 |
  \\      /  F ield         | OpenFOAM: The Open Source CFD Toolbox
   \\    /   O peration     | Website:  https://openfoam.org
    \\  /    A nd           | Version:  8
     \\/     M anipulation  |
\*---------------------------------------------------------------------------*/
FoamFile
{
    version     2.0;
    format      ascii;
    class       volScalarField;
    location    "0";
    object      yPlus;
}
// * * * * * * * * * * * * * * * * * * * * * * * * * * * * * * * * * * * * * //

dimensions      [0 0 0 0 0 0 0];

internalField   uniform 0;

boundaryField
{
    inlet
    {
        type            calculated;
        value           uniform 0;
    }
    outlet
    {
        type            calculated;
        value           uniform 0;
    }
    wall
    {
        type            calculated;
        value           nonuniform List<scalar> 
242
(
222.335
218.192
214.19
210.333
206.623
203.064
199.656
196.404
193.308
190.373
187.599
184.988
182.543
180.265
178.156
176.218
174.451
172.857
171.437
170.193
169.125
168.233
167.519
166.983
166.626
166.447
241.204
247.192
252.171
255.843
258.451
260.147
261.028
261.229
260.84
259.965
258.651
256.982
254.967
252.674
250.195
247.406
244.214
240.672
237.53
166.857
171.864
177.019
181.888
186.703
191.466
196.173
200.825
205.418
209.953
214.429
218.843
223.195
227.484
231.912
236.04
341.569
341.48
341.302
341.035
340.679
340.234
339.701
339.078
338.368
337.569
336.682
335.707
334.644
333.494
332.257
330.933
329.523
328.027
326.445
324.778
323.025
321.189
319.268
317.264
315.177
313.008
310.756
308.424
306.01
303.516
300.943
298.291
295.561
347.027
346.728
346.129
345.232
344.037
342.546
340.758
338.677
336.303
333.639
330.687
327.449
323.929
320.128
316.051
311.701
307.081
302.196
297.05
291.646
285.99
280.086
273.939
267.555
260.939
254.096
247.033
247.033
254.096
260.939
267.555
273.939
280.086
285.99
291.646
297.05
302.196
307.081
311.701
316.051
320.128
323.929
327.449
330.687
333.639
336.303
338.677
340.758
342.546
344.037
345.232
346.129
346.728
347.027
295.561
298.291
300.943
303.516
306.01
308.424
310.756
313.008
315.177
317.264
319.268
321.189
323.025
324.778
326.445
328.027
329.523
330.933
332.257
333.494
334.644
335.707
336.682
337.569
338.368
339.078
339.701
340.234
340.679
341.035
341.302
341.48
341.569
236.04
231.912
227.484
223.195
218.843
214.429
209.953
205.418
200.825
196.173
191.466
186.703
181.888
177.019
171.864
166.857
237.53
240.672
244.214
247.406
250.195
252.674
254.967
256.982
258.651
259.965
260.84
261.229
261.028
260.147
258.451
255.843
252.171
247.192
241.204
166.447
166.626
166.983
167.519
168.233
169.125
170.193
171.437
172.857
174.451
176.218
178.156
180.265
182.543
184.988
187.599
190.373
193.308
196.404
199.656
203.064
206.623
210.333
214.19
218.192
222.335
)
;
    }
    defaultFaces
    {
        type            empty;
    }
}


// ************************************************************************* //
